
Predictions were generated on 27-Dec-2022 at 13:31:28 using OpenFAST, compiled as a 64-bit application using single precision at commit v1.1-dirty
 linked with  NWTC Subroutine Library; ElastoDyn; InflowWind; AeroDyn; ServoDyn

Description from the FAST input file: Generated with AeroElasticSE FAST driver

Time	Wind1VelX	Wind1VelY	Wind1VelZ	Azimuth	BldPitch1	BldPitch2	BldPitch3	GenSpeed	LSSTipMya	LSSTipMys	LSSTipMza	LSSTipMzs	LSShftFxa	LSShftFxs	LSShftFya	LSShftFys	LSShftFza	LSShftFzs	NacYaw	NcIMURAys	PtfmHeave	PtfmPitch	PtfmRoll	PtfmSurge	PtfmSway	PtfmYaw	RootFxb1	RootFxb2	RootFxb3	RootFxc1	RootFxc2	RootFxc3	RootFyb1	RootFyb2	RootFyb3	RootFyc1	RootFyc2	RootFyc3	RootFzb1	RootFzb2	RootFzb3	RootFzc1	RootFzc2	RootFzc3	RootMxb1	RootMxb2	RootMxb3	RootMxc1	RootMxc2	RootMxc3	RootMyb1	RootMyb2	RootMyb3	RootMyc1	RootMyc2	RootMyc3	RootMzb1	RootMzb2	RootMzb3	RootMzc1	RootMzc2	RootMzc3	RotSpeed	RotThrust	RotTorq	Spn1FLzb1	Spn1FLzb2	Spn1FLzb3	Spn1MLxb1	Spn1MLxb2	Spn1MLxb3	Spn1MLyb1	Spn1MLyb2	Spn1MLyb3	Spn2FLzb1	Spn2FLzb2	Spn2FLzb3	Spn2MLxb1	Spn2MLxb2	Spn2MLxb3	Spn2MLyb1	Spn2MLyb2	Spn2MLyb3	Spn3FLzb1	Spn3FLzb2	Spn3FLzb3	Spn3MLxb1	Spn3MLxb2	Spn3MLxb3	Spn3MLyb1	Spn3MLyb2	Spn3MLyb3	Spn4FLzb1	Spn4FLzb2	Spn4FLzb3	Spn4MLxb1	Spn4MLxb2	Spn4MLxb3	Spn4MLyb1	Spn4MLyb2	Spn4MLyb3	Spn5FLzb1	Spn5FLzb2	Spn5FLzb3	Spn5MLxb1	Spn5MLxb2	Spn5MLxb3	Spn5MLyb1	Spn5MLyb2	Spn5MLyb3	Spn6FLzb1	Spn6FLzb2	Spn6FLzb3	Spn6MLxb1	Spn6MLxb2	Spn6MLxb3	Spn6MLyb1	Spn6MLyb2	Spn6MLyb3	Spn7FLzb1	Spn7FLzb2	Spn7FLzb3	Spn7MLxb1	Spn7MLxb2	Spn7MLxb3	Spn7MLyb1	Spn7MLyb2	Spn7MLyb3	Spn8FLzb1	Spn8FLzb2	Spn8FLzb3	Spn8MLxb1	Spn8MLxb2	Spn8MLxb3	Spn8MLyb1	Spn8MLyb2	Spn8MLyb3	Spn9FLzb1	Spn9FLzb2	Spn9FLzb3	Spn9MLxb1	Spn9MLxb2	Spn9MLxb3	Spn9MLyb1	Spn9MLyb2	Spn9MLyb3	TipDxb1	TipDxb2	TipDxb3	TipDxc1	TipDxc2	TipDxc3	TipDyb1	TipDyb2	TipDyb3	TipDyc1	TipDyc2	TipDyc3	TipDzb1	TipDzb2	TipDzb3	TipDzc1	TipDzc2	TipDzc3	TwHt1FLxt	TwHt1FLyt	TwHt1FLzt	TwHt1MLxt	TwHt1MLyt	TwHt1MLzt	TwHt2FLxt	TwHt2FLyt	TwHt2FLzt	TwHt2MLxt	TwHt2MLyt	TwHt2MLzt	TwHt3FLxt	TwHt3FLyt	TwHt3FLzt	TwHt3MLxt	TwHt3MLyt	TwHt3MLzt	TwHt4FLxt	TwHt4FLyt	TwHt4FLzt	TwHt4MLxt	TwHt4MLyt	TwHt4MLzt	TwHt5FLxt	TwHt5FLyt	TwHt5FLzt	TwHt5MLxt	TwHt5MLyt	TwHt5MLzt	TwHt6FLxt	TwHt6FLyt	TwHt6FLzt	TwHt6MLxt	TwHt6MLyt	TwHt6MLzt	TwHt7FLxt	TwHt7FLyt	TwHt7FLzt	TwHt7MLxt	TwHt7MLyt	TwHt7MLzt	TwHt8FLxt	TwHt8FLyt	TwHt8FLzt	TwHt8MLxt	TwHt8MLyt	TwHt8MLzt	TwHt9FLxt	TwHt9FLyt	TwHt9FLzt	TwHt9MLxt	TwHt9MLyt	TwHt9MLzt	TwrBsFxt	TwrBsFyt	TwrBsFzt	TwrBsMxt	TwrBsMyt	TwrBsMzt	YawBrFxp	YawBrFyp	YawBrFzp	YawBrMxp	YawBrMyp	YawBrMzp	B1N1Alpha	B1N2Alpha	B1N3Alpha	B1N4Alpha	B1N5Alpha	B1N6Alpha	B1N7Alpha	B1N8Alpha	B1N9Alpha	B2N1Alpha	B2N2Alpha	B2N3Alpha	B2N4Alpha	B2N5Alpha	B2N6Alpha	B2N7Alpha	B2N8Alpha	B2N9Alpha	B3N1Alpha	B3N2Alpha	B3N3Alpha	B3N4Alpha	B3N5Alpha	B3N6Alpha	B3N7Alpha	B3N8Alpha	B3N9Alpha	RtAeroCp	RtAeroCt	RtAeroCq	RtTSR	RtAeroFxh	RtAeroFyh	RtAeroFzh	RtVAvgxh	RtVAvgyh	RtVAvgzh	GenPwr	GenTq
(s)	(m/s)	(m/s)	(m/s)	(deg)	(deg)	(deg)	(deg)	(rpm)	(kN-m)	(kN-m)	(kN-m)	(kN-m)	(kN)	(kN)	(kN)	(kN)	(kN)	(kN)	(deg)	(deg/s^2)	(m)	(deg)	(deg)	(m)	(m)	(deg)	(kN)	(kN)	(kN)	(kN)	(kN)	(kN)	(kN)	(kN)	(kN)	(kN)	(kN)	(kN)	(kN)	(kN)	(kN)	(kN)	(kN)	(kN)	(kN-m)	(kN-m)	(kN-m)	(kN-m)	(kN-m)	(kN-m)	(kN-m)	(kN-m)	(kN-m)	(kN-m)	(kN-m)	(kN-m)	(kN-m)	(kN-m)	(kN-m)	(kN-m)	(kN-m)	(kN-m)	(rpm)	(kN)	(kN-m)	(kN)	(kN)	(kN)	(kN-m)	(kN-m)	(kN-m)	(kN-m)	(kN-m)	(kN-m)	(kN)	(kN)	(kN)	(kN-m)	(kN-m)	(kN-m)	(kN-m)	(kN-m)	(kN-m)	(kN)	(kN)	(kN)	(kN-m)	(kN-m)	(kN-m)	(kN-m)	(kN-m)	(kN-m)	(kN)	(kN)	(kN)	(kN-m)	(kN-m)	(kN-m)	(kN-m)	(kN-m)	(kN-m)	(kN)	(kN)	(kN)	(kN-m)	(kN-m)	(kN-m)	(kN-m)	(kN-m)	(kN-m)	(kN)	(kN)	(kN)	(kN-m)	(kN-m)	(kN-m)	(kN-m)	(kN-m)	(kN-m)	(kN)	(kN)	(kN)	(kN-m)	(kN-m)	(kN-m)	(kN-m)	(kN-m)	(kN-m)	(kN)	(kN)	(kN)	(kN-m)	(kN-m)	(kN-m)	(kN-m)	(kN-m)	(kN-m)	(kN)	(kN)	(kN)	(kN-m)	(kN-m)	(kN-m)	(kN-m)	(kN-m)	(kN-m)	(m)	(m)	(m)	(m)	(m)	(m)	(m)	(m)	(m)	(m)	(m)	(m)	(m)	(m)	(m)	(m)	(m)	(m)	(kN)	(kN)	(kN)	(kN-m)	(kN-m)	(kN-m)	(kN)	(kN)	(kN)	(kN-m)	(kN-m)	(kN-m)	(kN)	(kN)	(kN)	(kN-m)	(kN-m)	(kN-m)	(kN)	(kN)	(kN)	(kN-m)	(kN-m)	(kN-m)	(kN)	(kN)	(kN)	(kN-m)	(kN-m)	(kN-m)	(kN)	(kN)	(kN)	(kN-m)	(kN-m)	(kN-m)	(kN)	(kN)	(kN)	(kN-m)	(kN-m)	(kN-m)	(kN)	(kN)	(kN)	(kN-m)	(kN-m)	(kN-m)	(kN)	(kN)	(kN)	(kN-m)	(kN-m)	(kN-m)	(kN)	(kN)	(kN)	(kN-m)	(kN-m)	(kN-m)	(kN)	(kN)	(kN)	(kN-m)	(kN-m)	(kN-m)	(deg)	(deg)	(deg)	(deg)	(deg)	(deg)	(deg)	(deg)	(deg)	(deg)	(deg)	(deg)	(deg)	(deg)	(deg)	(deg)	(deg)	(deg)	(deg)	(deg)	(deg)	(deg)	(deg)	(deg)	(deg)	(deg)	(deg)	(-)	(-)	(-)	(-)	(N)	(N)	(N)	(m/s)	(m/s)	(m/s)	(kW)	(kN-m)
